 Gaussian 09, Revision D.01,
 Gaussian 09:  EM64L-G09RevD.01 24-Apr-2013

 -------------------------------
 #P OPT B3LYP svp Direct gfprint
 -------------------------------

 --------------------
 OPT H20 B3LYP 6-31G*
 --------------------
 Symbolic Z-matrix:
 Charge =  0 Multiplicity = 1

 SCF Done:  E(RB3LYP) =  -76.3581115503     A.U. after    9 cycles
 SCF Done:  E(RB3LYP) =  -76.3583096819     A.U. after    7 cycles
 SCF Done:  E(RB3LYP) =  -76.3583152992     A.U. after    7 cycles
 Optimization completed.
    -- Stationary point found.

                         Standard orientation:
 ---------------------------------------------------------------------
 Center     Atomic      Atomic             Coordinates (Angstroms)
 Number     Number       Type             X           Y           Z
 ---------------------------------------------------------------------
      1          8           0        0.000000    0.000000    0.120269
      2          1           0        0.000000    0.756858   -0.481074
      3          1           0        0.000000   -0.756858   -0.481074
 ---------------------------------------------------------------------

 The electronic state is 1-A1.
 Alpha  occ. eigenvalues --  -19.11967  -0.97984  -0.51157  -0.36797  -0.29168
 Alpha virt. eigenvalues --    0.04480   0.12390   0.55503   0.62063   0.91736
 Alpha virt. eigenvalues --    0.92034   1.00687   1.09520   1.34777   1.39500
 Alpha virt. eigenvalues --    1.54203   1.78687   2.19880   2.24605   2.96066

 Mulliken charges:
               1
     1  O   -0.294397
     2  H    0.147199
     3  H    0.147199
 Sum of Mulliken charges =   0.00000

 Dipole moment (field-independent basis, Debye):
    X=              0.0000    Y=              0.0000    Z=             -2.0049  Tot=              2.0049
 Quadrupole moment (field-independent basis, Debye-Ang):
   XX=             -7.0031   YY=             -4.3537   ZZ=             -5.9364
   XY=              0.0000   XZ=              0.0000   YZ=              0.0000

 Normal termination of Gaussian 09 at Mon May 27 17:27:14 2019.
