 Gaussian 09, Revision D.01,
 Gaussian 09:  EM64L-G09RevD.01 24-Apr-2013

 ------------------------------------------------------------------
 #P B3LYP SP 6-31G* guess=read geom=check Direct gfprint pop=(full)
 ------------------------------------------------------------------

 --------------------
 OPT H20 B3LYP 6-31G*
 --------------------
 Structure from the checkpoint file:  "SPplus.chk"
 Charge =  1 Multiplicity = 2

                         Standard orientation:
 ---------------------------------------------------------------------
 Center     Atomic      Atomic             Coordinates (Angstroms)
 Number     Number       Type             X           Y           Z
 ---------------------------------------------------------------------
      1          8           0        0.000000    0.000000    0.119809
      2          1           0        0.000000    0.761283   -0.479236
      3          1           0        0.000000   -0.761283   -0.479236
 ---------------------------------------------------------------------

 SCF Done:  E(UB3LYP) =  -75.9545728716     A.U. after    9 cycles

 The electronic state is 2-B1.
 Alpha  occ. eigenvalues --  -19.72069  -1.53878  -1.00788  -0.88184  -0.87475
 Alpha virt. eigenvalues --   -0.28221  -0.20323   0.37906   0.40241   0.42434
 Alpha virt. eigenvalues --    0.48513   0.63942   0.76391   1.22014   1.24253
 Alpha virt. eigenvalues --    1.25582   1.78040   2.11409   3.06345
  Beta  occ. eigenvalues --  -19.69340  -1.46740  -0.98616  -0.84387
  Beta virt. eigenvalues --   -0.61507  -0.27160  -0.19724   0.37753   0.44003
  Beta virt. eigenvalues --    0.49821   0.50307   0.65440   0.79358   1.26617
  Beta virt. eigenvalues --    1.28575   1.32038   1.84079   2.12456   3.10766

 Mulliken charges and spin densities:
               1          2
     1  O   -0.111957   1.051544
     2  H    0.555979  -0.025772
     3  H    0.555979  -0.025772
 Sum of Mulliken charges =   1.00000   1.00000

 Dipole moment (field-independent basis, Debye):
    X=              0.0000    Y=              0.0000    Z=             -2.3325  Tot=              2.3325
 Quadrupole moment (field-independent basis, Debye-Ang):
   XX=             -4.7669   YY=             -2.2073   ZZ=             -4.2805
   XY=              0.0000   XZ=              0.0000   YZ=              0.0000

 Normal termination of Gaussian 09 at Mon May 27 17:20:24 2019.
