 Gaussian 09, Revision D.01,
 Gaussian 09:  EM64L-G09RevD.01 24-Apr-2013

 ------------------------------------------------------------------
 #P B3LYP SP 6-31G* guess=read geom=check Direct gfprint pop=(full)
 ------------------------------------------------------------------

 --------------------
 OPT H20 B3LYP 6-31G*
 --------------------
 Structure from the checkpoint file:  "SPminus.chk"
 Charge = -1 Multiplicity = 2

                         Standard orientation:
 ---------------------------------------------------------------------
 Center     Atomic      Atomic             Coordinates (Angstroms)
 Number     Number       Type             X           Y           Z
 ---------------------------------------------------------------------
      1          8           0        0.000000    0.000000    0.119809
      2          1           0        0.000000    0.761283   -0.479236
      3          1           0        0.000000   -0.761283   -0.479236
 ---------------------------------------------------------------------

 SCF Done:  E(UB3LYP) =  -76.2441025026     A.U. after   10 cycles

 The electronic state is 2-A1.
 Alpha  occ. eigenvalues --  -18.78404  -0.66276  -0.18282  -0.05991   0.03194
 Alpha  occ. eigenvalues --    0.27049
 Alpha virt. eigenvalues --    0.40777   1.08813   1.16378   1.19494   1.19585
 Alpha virt. eigenvalues --    1.36515   1.50730   2.05349   2.07238   2.10164
 Alpha virt. eigenvalues --    2.60487   2.89984   3.86262
  Beta  occ. eigenvalues --  -18.77525  -0.64109  -0.17075  -0.04417   0.04046
  Beta virt. eigenvalues --    0.37210   0.45384   1.09932   1.17773   1.20394
  Beta virt. eigenvalues --    1.22035   1.37781   1.52069   2.06165   2.07305
  Beta virt. eigenvalues --    2.10916   2.61181   2.91274   3.87308

 Mulliken charges and spin densities:
               1          2
     1  O   -0.611051  -0.142833
     2  H   -0.194474   0.571417
     3  H   -0.194474   0.571417
 Sum of Mulliken charges =  -1.00000   1.00000

 Dipole moment (field-independent basis, Debye):
    X=              0.0000    Y=              0.0000    Z=              0.8066  Tot=              0.8066
 Quadrupole moment (field-independent basis, Debye-Ang):
   XX=             -9.9007   YY=            -11.3944   ZZ=            -11.1621
   XY=              0.0000   XZ=              0.0000   YZ=              0.0000

 Normal termination of Gaussian 09 at Mon May 27 17:20:15 2019.
