 Gaussian 09, Revision D.01,
 Gaussian 09:  EM64L-G09RevD.01 24-Apr-2013

 ------------------------------------------
 #P OPT B3LYP svp Direct gfprint pop=(full)
 ------------------------------------------

 --------------------
 OPT H20 B3LYP 6-31G*
 --------------------
 Symbolic Z-matrix:
 Charge =  0 Multiplicity = 3

 SCF Done:  E(UB3LYP) =  -76.0834509706     A.U. after   10 cycles
 SCF Done:  E(UB3LYP) =  -76.1124521618     A.U. after   12 cycles
 SCF Done:  E(UB3LYP) =  -76.1191436338     A.U. after   13 cycles
 SCF Done:  E(UB3LYP) =  -76.1223241006     A.U. after   12 cycles
 SCF Done:  E(UB3LYP) =  -76.1232898633     A.U. after   11 cycles
 SCF Done:  E(UB3LYP) =  -76.1268152511     A.U. after   13 cycles
 SCF Done:  E(UB3LYP) =  -76.1278906009     A.U. after   13 cycles
 SCF Done:  E(UB3LYP) =  -76.1280159753     A.U. after   12 cycles
 SCF Done:  E(UB3LYP) =  -76.1280324487     A.U. after   11 cycles
 SCF Done:  E(UB3LYP) =  -76.1280337144     A.U. after    8 cycles
 SCF Done:  E(UB3LYP) =  -76.1280337785     A.U. after    8 cycles
 SCF Done:  E(UB3LYP) =  -76.1280337441     A.U. after    8 cycles
 SCF Done:  E(UB3LYP) =  -76.1280337809     A.U. after    8 cycles
 Optimization completed.
    -- Stationary point found.

                         Standard orientation:
 ---------------------------------------------------------------------
 Center     Atomic      Atomic             Coordinates (Angstroms)
 Number     Number       Type             X           Y           Z
 ---------------------------------------------------------------------
      1          8           0        0.000000    0.000000    0.035771
      2          1           0        0.000000    1.197949   -0.143085
      3          1           0        0.000000   -1.197949   -0.143085
 ---------------------------------------------------------------------

 The electronic state is 3-B1.
 Alpha  occ. eigenvalues --  -19.25500  -1.01477  -0.55967  -0.45519  -0.38500
 Alpha  occ. eigenvalues --   -0.17227
 Alpha virt. eigenvalues --    0.01095   0.34681   0.49703   0.78523   0.83031
 Alpha virt. eigenvalues --    0.96379   1.16842   1.25112   1.36138   1.53918
 Alpha virt. eigenvalues --    1.54659   1.66760   2.09362   2.51915   2.52150

  Beta  occ. eigenvalues --  -19.22415  -0.92927  -0.51470  -0.34891
  Beta virt. eigenvalues --   -0.19397  -0.04013   0.06706   0.40648   0.56546
  Beta virt. eigenvalues --    0.85530   0.89109   1.00441   1.20607   1.31697
  Beta virt. eigenvalues --    1.40801   1.59891   1.61509   1.73134   2.14701

 Mulliken charges and spin densities:
               1          2
     1  O   -0.035218   0.946089
     2  H    0.017609   0.526956
     3  H    0.017609   0.526956
 Sum of Mulliken charges =   0.00000   2.00000

 Dipole moment (field-independent basis, Debye):
    X=              0.0000    Y=              0.0000    Z=             -0.1590  Tot=              0.1590
 Quadrupole moment (field-independent basis, Debye-Ang):
   XX=             -6.9738   YY=             -7.1771   ZZ=             -8.0644
   XY=              0.0000   XZ=              0.0000   YZ=              0.0000

 1\1\GINC-MOLTECH-CALC0\FOpt\UB3LYP\SVP\H2O1(3)\TCAUCHY\27-May-2019\0\\
 #P OPT B3LYP svp Direct gfprint pop=(full)\\OPT H20 B3LYP 6-31G*\\0,3\
 O,0.,0.,-0.3807627738\H,0.,1.1979490127,-0.5596186131\H,0.,-1.19794901
 27,-0.5596186131\\Version=EM64L-G09RevD.01\State=3-B1\HF=-76.1280338\S
 2=2.005266\S2-1=0.\S2A=2.000008\RMSD=9.054e-10\RMSF=1.329e-08\Dipole=0
 .,0.,-0.0625367\Quadrupole=0.3206755,0.1694998,-0.4901752,0.,0.,0.\PG=
 C02V [C2(O1),SGV(H2)]\\@

 Normal termination of Gaussian 09 at Mon May 27 17:29:18 2019.
