 Gaussian 09, Revision D.01,
 Gaussian 09:  EM64L-G09RevD.01 24-Apr-2013

 ------------------------------------------------------------------
 #P OPT TD(nstates=5,root=1) B3LYP 6-31G* Direct gfprint pop=(full)
 ------------------------------------------------------------------

 --------------------
 OPT H20 B3LYP 6-31G*
 --------------------
 Symbolic Z-matrix:
 Charge =  0 Multiplicity = 1

 SCF Done:  E(RB3LYP) =  -76.4087111725     A.U. after    9 cycles
 SCF Done:  E(RB3LYP) =  -76.3977892614     A.U. after   10 cycles
 SCF Done:  E(RB3LYP) =  -76.3302172741     A.U. after   10 cycles
 SCF Done:  E(RB3LYP) =  -76.3574602684     A.U. after   10 cycles
 SCF Done:  E(RB3LYP) =  -76.3512764881     A.U. after    9 cycles
 SCF Done:  E(RB3LYP) =  -76.2843672743     A.U. after   11 cycles
 SCF Done:  E(RB3LYP) =  -76.2543326420     A.U. after   11 cycles
 SCF Done:  E(RB3LYP) =  -76.2408648270     A.U. after   11 cycles
 SCF Done:  E(RB3LYP) =  -76.2483772333     A.U. after   11 cycles
 SCF Done:  E(RB3LYP) =  -76.2408281324     A.U. after   10 cycles
 SCF Done:  E(RB3LYP) =  -76.2296672624     A.U. after   10 cycles
 SCF Done:  E(RB3LYP) =  -76.2281548573     A.U. after    8 cycles
 SCF Done:  E(RB3LYP) =  -76.2280805923     A.U. after    7 cycles

 Excitation energies and oscillator strengths:

 Excited State   1:      Singlet-B1     1.7079 eV  725.96 nm  f=0.0000  <S**2>=0.000
       5 ->  6         0.71437
       5 <-  6        -0.10162
 This state for optimization and/or second-order correction.
 Total Energy, E(TD-HF/TD-KS) =  -76.1653175062
 Copying the excited state density for this state as the 1-particle RhoCI density.

 Excited State   2:      Singlet-A1     1.7079 eV  725.96 nm  f=0.0000  <S**2>=0.000
       4 ->  6         0.71437
       4 <-  6        -0.10162

 Excited State   3:      Singlet-A2     6.1170 eV  202.69 nm  f=0.0000  <S**2>=0.000
       5 ->  7         0.70685

 Excited State   4:      Singlet-B2     6.1170 eV  202.69 nm  f=0.0000  <S**2>=0.000
       4 ->  7         0.70685

 Excited State   5:      Singlet-B2    10.2405 eV  121.07 nm  f=0.8819  <S**2>=0.000
       3 ->  6         0.71273
       3 <-  6        -0.10214

 Optimization completed.
    -- Stationary point found.

                         Standard orientation:
 ---------------------------------------------------------------------
 Center     Atomic      Atomic             Coordinates (Angstroms)
 Number     Number       Type             X           Y           Z
 ---------------------------------------------------------------------
      1          8           0        0.000000    0.000000    0.000067
      2          1           0        0.000000    1.272715   -0.000268
      3          1           0        0.000000   -1.272715   -0.000268
 ---------------------------------------------------------------------

 The electronic state is 1-A1.
 Alpha  occ. eigenvalues --  -19.09212  -0.84460  -0.44527  -0.22004  -0.22004
 Alpha virt. eigenvalues --   -0.10150   0.08304   0.62568   0.72820   0.93881
 Alpha virt. eigenvalues --    0.93881   1.01565   1.37418   1.81482   1.81482
 Alpha virt. eigenvalues --    1.89172   1.89172   2.20348   3.47526

 Mulliken charges:
               1
     1  O   -0.899203
     2  H    0.449601
     3  H    0.449601
 Sum of Mulliken charges =   0.00000

 Dipole moment (field-independent basis, Debye):
    X=              0.0000    Y=              0.0000    Z=             -0.0015  Tot=              0.0015
 Quadrupole moment (field-independent basis, Debye-Ang):
   XX=             -7.7352   YY=              0.8497   ZZ=             -7.7352
   XY=              0.0000   XZ=              0.0000   YZ=              0.0000

 Normal termination of Gaussian 09 at Mon May 27 17:21:39 2019.
