 Gaussian 09, Revision D.01,
 Gaussian 09:  EM64L-G09RevD.01 24-Apr-2013

 ----------------------------------------------------------------------
 #P FREQ B3LYP 6-31G* guess=read geom=allcheck Direct gfprint pop=(full
 )
 ----------------------------------------------------------------------

 Structure from the checkpoint file:  "FREQ.chk"
 --------------------
 OPT H20 B3LYP 6-31G*
 --------------------
 Charge =  0 Multiplicity = 1

                         Standard orientation:
 ---------------------------------------------------------------------
 Center     Atomic      Atomic             Coordinates (Angstroms)
 Number     Number       Type             X           Y           Z
 ---------------------------------------------------------------------
      1          8           0        0.000000    0.000000    0.119809
      2          1           0        0.000000    0.761283   -0.479236
      3          1           0        0.000000   -0.761283   -0.479236
 ---------------------------------------------------------------------

 SCF Done:  E(RB3LYP) =  -76.4089532699     A.U. after    1 cycles

 The electronic state is 1-A1.
 Alpha  occ. eigenvalues --  -19.13819  -0.99793  -0.51705  -0.37232  -0.29121
 Alpha virt. eigenvalues --    0.06260   0.14811   0.77228   0.86107   0.89077
 Alpha virt. eigenvalues --    0.89514   1.06574   1.19362   1.72895   1.74641
 Alpha virt. eigenvalues --    1.77975   2.28058   2.57704   3.55182

 Mulliken charges:
               1
     1  O   -0.774236
     2  H    0.387118
     3  H    0.387118
 Sum of Mulliken charges =   0.00000

 Dipole moment (field-independent basis, Debye):
    X=              0.0000    Y=              0.0000    Z=             -2.0961  Tot=              2.0961
 Quadrupole moment (field-independent basis, Debye-Ang):
   XX=             -7.2039   YY=             -4.2888   ZZ=             -5.9885
   XY=              0.0000   XZ=              0.0000   YZ=              0.0000

  Exact polarizability:   2.830   0.000   7.393   0.000   0.000   5.426
 Approx polarizability:   3.082   0.000   8.968   0.000   0.000   6.760

                      1                      2                      3
                     A1                     A1                     B2
 Frequencies --   1713.5448              3727.9682              3849.6390
 Red. masses --      1.0824                 1.0454                 1.0810
 Frc consts  --      1.8726                 8.5599                 9.4384
 IR Inten    --     75.7070                 1.6905                19.2867

 - Thermochemistry -
 -------------------
 Temperature   298.150 Kelvin.  Pressure   1.00000 Atm.
 Atom     1 has atomic number  8 and mass  15.99491

 Molecular mass:    18.01056 amu.
 Principal axes and moments of inertia in atomic units:
                           1         2         3
     Eigenvalues --     2.29396   4.17162   6.46558
           X            0.00000   0.00000   1.00000
           Y            1.00000   0.00000   0.00000
           Z            0.00000   1.00000   0.00000
 This molecule is an asymmetric top.
 Rotational symmetry number  2.
 Rotational temperatures (Kelvin)     37.75734    20.76263    13.39614
 Rotational constants (GHZ):         786.73622   432.62345   279.13055
 Zero-point vibrational energy      55573.4 (Joules/Mol)
                                   13.28237 (Kcal/Mol)
 Vibrational temperatures:   2465.41  5363.71  5538.76
          (Kelvin)

 Zero-point correction=                           0.021167 (Hartree/Particle)
 Thermal correction to Energy=                    0.024001
 Thermal correction to Enthalpy=                  0.024946
 Thermal correction to Gibbs Free Energy=         0.003499
 Sum of electronic and zero-point Energies=            -76.387786
 Sum of electronic and thermal Energies=               -76.384952
 Sum of electronic and thermal Enthalpies=             -76.384008
 Sum of electronic and thermal Free Energies=          -76.405454

                     E (Thermal)             CV                S
                      KCal/Mol        Cal/Mol-Kelvin    Cal/Mol-Kelvin
 Total                   15.061              5.996             45.137
 Electronic               0.000              0.000              0.000
 Translational            0.889              2.981             34.608
 Rotational               0.889              2.981             10.524
 Vibrational             13.284              0.035              0.005

 Optimization completed.
    -- Stationary point found.
 Normal termination of Gaussian 09 at Mon May 27 17:20:04 2019.
