 Gaussian 09, Revision D.01,
 Gaussian 09:  EM64L-G09RevD.01 24-Apr-2013

 ---------------------------------------------
 #P OPT B3LYP 6-31G* Direct gfprint pop=(full)
 ---------------------------------------------

 --------------------
 OPT H20 B3LYP 6-31G*
 --------------------
 Symbolic Z-matrix:
 Charge =  0 Multiplicity = 1

 SCF Done:  E(RB3LYP) =  -76.4087111725     A.U. after    9 cycles
 SCF Done:  E(RB3LYP) =  -76.4089480872     A.U. after    7 cycles
 SCF Done:  E(RB3LYP) =  -76.4089532699     A.U. after    6 cycles
 Optimization completed.
    -- Stationary point found.

                         Standard orientation:
 ---------------------------------------------------------------------
 Center     Atomic      Atomic             Coordinates (Angstroms)
 Number     Number       Type             X           Y           Z
 ---------------------------------------------------------------------
      1          8           0        0.000000    0.000000    0.119809
      2          1           0        0.000000    0.761283   -0.479236
      3          1           0        0.000000   -0.761283   -0.479236
 ---------------------------------------------------------------------

 The electronic state is 1-A1.
 Alpha  occ. eigenvalues --  -19.13819  -0.99793  -0.51705  -0.37232  -0.29121
 Alpha virt. eigenvalues --    0.06260   0.14811   0.77228   0.86107   0.89077
 Alpha virt. eigenvalues --    0.89514   1.06574   1.19362   1.72895   1.74641
 Alpha virt. eigenvalues --    1.77975   2.28058   2.57704   3.55182

 Mulliken charges:
               1
     1  O   -0.774236
     2  H    0.387118
     3  H    0.387118
 Sum of Mulliken charges =   0.00000

 Dipole moment (field-independent basis, Debye):
    X=              0.0000    Y=              0.0000    Z=             -2.0961  Tot=              2.0961
 Quadrupole moment (field-independent basis, Debye-Ang):
   XX=             -7.2039   YY=             -4.2888   ZZ=             -5.9885
   XY=              0.0000   XZ=              0.0000   YZ=              0.0000

 Normal termination of Gaussian 09 at Mon May 27 17:07:05 2019.
