 Gaussian 09, Revision D.01,
 Gaussian 09:  EM64L-G09RevD.01 24-Apr-2013

 --------------------------------------------------------------------
 #p PBE1PBE chkbasis guess=read geom=allcheck TD=(nstates=30) Gfprint
 --------------------------------------------------------------------

 Structure from the checkpoint file:  "TD.chk"
 ---------------------------------
 Helicene M Fondamental state form
 ---------------------------------
 Charge =  0 Multiplicity = 1

                         Standard orientation:
 ---------------------------------------------------------------------
 Center     Atomic      Atomic             Coordinates (Angstroms)
 Number     Number       Type             X           Y           Z
 ---------------------------------------------------------------------
      1          6           0        3.231937   -0.029710   -1.618650
      2          6           0        2.604558   -1.208173   -1.160087
      3          6           0        3.202334   -2.442608   -1.525387
      4          6           0        4.430407   -2.456293   -2.217280
      5          6           0        5.039291   -1.290197   -2.596885
      6          6           0        4.413573   -0.067588   -2.314961
      7          6           0        2.521249   -3.654285   -1.250156
      8          6           0        1.282087   -3.641698   -0.700217
      9          6           0        0.659483   -2.430356   -0.293196
     10          6           0        1.353257   -1.218174   -0.430460
     11          6           0       -0.659507   -2.430322    0.293275
     12          6           0       -1.353209   -1.218105    0.430546
     13          6           0       -0.701534    0.000015   -0.000126
     14          6           0        0.701572    0.000030    0.000031
     15          6           0       -1.353152    1.218137   -0.430672
     16          6           0       -0.659598    2.430406   -0.293103
     17          6           0        0.659485    2.430442    0.292988
     18          6           0        1.353156    1.218203    0.430496
     19          6           0        1.282568    3.641825    0.699230
     20          6           0        2.521759    3.654365    1.249089
     21          6           0        3.202485    2.442635    1.525069
     22          6           0        2.604436    1.208224    1.160195
     23          6           0        4.430428    2.456246    2.217155
     24          6           0        5.038916    1.290107    2.597311
     25          6           0        4.412975    0.067557    2.315679
     26          6           0        3.231442    0.029741    1.619169
     27          1           0        4.860335    0.859733   -2.656807
     28          1           0        2.767487    0.929369   -1.437980
     29          1           0        2.766780   -0.929270    1.438652
     30          1           0        4.859468   -0.859748    2.657919
     31          1           0        5.979953    1.310712    3.136070
     32          1           0        4.872754    3.416284    2.465041
     33          1           0        2.985289    4.592337    1.538009
     34          1           0        0.757548    4.580017    0.580021
     35          6           0       -2.604453    1.208012   -1.160280
     36          6           0       -2.604484   -1.208025    1.160173
     37          1           0        0.756616   -4.579730   -0.581716
     38          1           0        2.984446   -4.592193   -1.539815
     39          1           0        4.872501   -3.416369   -2.465431
     40          1           0        5.980434   -1.310860   -3.135455
     41          6           0       -3.202282   -2.442407    1.525636
     42          6           0       -4.430337   -2.455971    2.217574
     43          6           0       -5.039200   -1.289807    2.597056
     44          6           0       -4.413519   -0.067235    2.314887
     45          6           0       -3.231918   -0.029452    1.618501
     46          6           0       -2.521261   -3.654166    1.250551
     47          1           0       -4.872479   -3.416001    2.465811
     48          1           0       -5.980282   -1.310399    3.135732
     49          1           0       -4.860254    0.860147    2.656614
     50          1           0       -2.767462    0.929612    1.437746
     51          6           0       -1.282127   -3.641687    0.700514
     52          1           0       -2.984489   -4.592004    1.540388
     53          1           0       -0.756663   -4.579730    0.582112
     54          6           0       -3.202559    2.442362   -1.525259
     55          6           0       -4.430470    2.455847   -2.217398
     56          6           0       -5.038888    1.289637   -2.597465
     57          6           0       -4.412912    0.067142   -2.315677
     58          6           0       -3.231380    0.029450   -1.619152
     59          6           0       -2.521901    3.654144   -1.249314
     60          1           0       -4.872819    3.415837   -2.465425
     61          1           0       -5.979886    1.310151   -3.136296
     62          1           0       -4.859376   -0.860221   -2.657797
     63          1           0       -2.766673   -0.929517   -1.438535
     64          6           0       -1.282707    3.641708   -0.699451
     65          1           0       -2.985478    4.592079   -1.538281
     66          1           0       -0.757741    4.579929   -0.580265
 ---------------------------------------------------------------------

 SCF Done:  E(RPBE1PBE) =  -1613.49569128     A.U. after    2 cycles

 Excitation energies and oscillator strengths:

 Excited State   1:      Singlet-A      2.8566 eV  434.02 nm  f=0.0154  <S**2>=0.000
     137 -> 140       -0.41914
     138 -> 139        0.56006
 This state for optimization and/or second-order correction.
 Total Energy, E(TD-HF/TD-KS) =  -1613.39071226
 Copying the excited state density for this state as the 1-particle RhoCI density.

 Excited State   2:      Singlet-A      3.0427 eV  407.48 nm  f=0.1046  <S**2>=0.000
     137 -> 139        0.37620
     138 -> 140        0.59062

 Excited State   3:      Singlet-A      3.2337 eV  383.42 nm  f=0.2805  <S**2>=0.000
     137 -> 140        0.55506
     138 -> 139        0.41564

 Excited State   4:      Singlet-A      3.3413 eV  371.07 nm  f=0.2373  <S**2>=0.000
     137 -> 139        0.59138
     138 -> 140       -0.36925

 Excited State   5:      Singlet-A      3.4918 eV  355.07 nm  f=0.0000  <S**2>=0.000
     135 -> 139        0.12199
     136 -> 140        0.50053
     138 -> 141        0.46557

 Excited State   6:      Singlet-A      3.6413 eV  340.50 nm  f=0.0097  <S**2>=0.000
     135 -> 140       -0.12275
     136 -> 139        0.68058

 Excited State   7:      Singlet-A      3.8013 eV  326.16 nm  f=0.0000  <S**2>=0.000
     135 -> 139       -0.27261
     136 -> 140       -0.40735
     137 -> 143       -0.12726
     138 -> 141        0.48851

 Excited State   8:      Singlet-A      3.8361 eV  323.21 nm  f=0.0072  <S**2>=0.000
     135 -> 140        0.36997
     137 -> 141        0.46694
     138 -> 143        0.35673

 Excited State   9:      Singlet-A      3.8574 eV  321.42 nm  f=0.0276  <S**2>=0.000
     133 -> 139        0.12172
     135 -> 140        0.57429
     136 -> 139        0.12320
     137 -> 141       -0.21095
     138 -> 143       -0.29197

 Excited State  10:      Singlet-A      3.8785 eV  319.67 nm  f=0.0065  <S**2>=0.000
     134 -> 140       -0.25869
     138 -> 142        0.64134

 Excited State  11:      Singlet-A      3.9309 eV  315.41 nm  f=0.0013  <S**2>=0.000
     134 -> 139        0.49624
     136 -> 144       -0.10372
     137 -> 142       -0.45367

 Excited State  12:      Singlet-A      3.9436 eV  314.39 nm  f=0.0000  <S**2>=0.000
     133 -> 140       -0.10109
     135 -> 139        0.58643
     136 -> 140       -0.24636
     137 -> 143       -0.22388
     138 -> 144        0.11623

 Excited State  13:      Singlet-A      3.9657 eV  312.64 nm  f=0.1243  <S**2>=0.000
     133 -> 139        0.17948
     136 -> 139        0.11890
     137 -> 141       -0.40664
     138 -> 143        0.52222

 Excited State  14:      Singlet-A      4.0966 eV  302.65 nm  f=0.0755  <S**2>=0.000
     133 -> 139        0.56772
     136 -> 142       -0.18164
     137 -> 141        0.23478
     137 -> 144       -0.23597

 Excited State  15:      Singlet-A      4.1023 eV  302.23 nm  f=0.0186  <S**2>=0.000
     132 -> 139        0.15841
     134 -> 140        0.63232
     138 -> 142        0.22956

 Excited State  16:      Singlet-A      4.1375 eV  299.66 nm  f=0.0000  <S**2>=0.000
     133 -> 140        0.63033
     135 -> 139        0.15464
     138 -> 144       -0.24888

 Excited State  17:      Singlet-A      4.2045 eV  294.89 nm  f=0.0000  <S**2>=0.000
     135 -> 139        0.15689
     137 -> 143        0.63223
     138 -> 141        0.16440

 Excited State  18:      Singlet-A      4.2710 eV  290.29 nm  f=0.0000  <S**2>=0.000
     131 -> 139       -0.11240
     133 -> 140        0.26538
     138 -> 144        0.62406

 Excited State  19:      Singlet-A      4.2782 eV  289.81 nm  f=0.3131  <S**2>=0.000
     132 -> 140        0.17004
     134 -> 139        0.42739
     136 -> 141       -0.27131
     137 -> 142        0.42672
     138 -> 145       -0.14691

 Excited State  20:      Singlet-A      4.2860 eV  289.28 nm  f=0.0110  <S**2>=0.000
     132 -> 139        0.64909
     134 -> 140       -0.11371
     136 -> 143       -0.16435
     138 -> 142       -0.10688

 Excited State  21:      Singlet-A      4.3027 eV  288.16 nm  f=0.0093  <S**2>=0.000
     132 -> 140        0.58323
     136 -> 141        0.20462
     137 -> 142       -0.19837
     138 -> 145       -0.25703

 Excited State  22:      Singlet-A      4.4427 eV  279.07 nm  f=0.0095  <S**2>=0.000
     132 -> 140        0.32728
     136 -> 141       -0.19011
     138 -> 145        0.58199

 Excited State  23:      Singlet-A      4.4442 eV  278.98 nm  f=0.0843  <S**2>=0.000
     133 -> 139        0.31142
     134 -> 141        0.16261
     137 -> 144        0.59614

 Excited State  24:      Singlet-A      4.4879 eV  276.26 nm  f=0.0000  <S**2>=0.000
     130 -> 139       -0.14725
     132 -> 139        0.16560
     132 -> 142       -0.12905
     134 -> 145        0.10815
     135 -> 141        0.47621
     136 -> 143        0.38627
     137 -> 148       -0.10754

 Excited State  25:      Singlet-A      4.5604 eV  271.87 nm  f=1.2062  <S**2>=0.000
     134 -> 139        0.21338
     136 -> 141        0.56183
     137 -> 142        0.22064
     138 -> 140        0.10034
     138 -> 145        0.22468

 Excited State  26:      Singlet-A      4.6049 eV  269.24 nm  f=0.0425  <S**2>=0.000
     135 -> 144       -0.11067
     136 -> 143       -0.14101
     137 -> 145        0.65350

 Excited State  27:      Singlet-A      4.6208 eV  268.31 nm  f=0.0332  <S**2>=0.000
     133 -> 139        0.14391
     134 -> 141        0.24656
     136 -> 142        0.56655
     137 -> 144       -0.24741

 Excited State  28:      Singlet-A      4.7643 eV  260.24 nm  f=0.0967  <S**2>=0.000
     132 -> 139        0.10125
     135 -> 141       -0.42411
     136 -> 143        0.51296
     137 -> 145        0.17430

 Excited State  29:      Singlet-A      4.8154 eV  257.48 nm  f=0.0000  <S**2>=0.000
     131 -> 139        0.34029
     134 -> 143       -0.18064
     135 -> 142        0.49171
     136 -> 145       -0.10136
     137 -> 143       -0.13443
     137 -> 146       -0.16167

 Excited State  30:      Singlet-A      4.8322 eV  256.58 nm  f=0.0005  <S**2>=0.000
     130 -> 140        0.11803
     133 -> 141        0.48863
     135 -> 143        0.10641
     136 -> 144        0.39252
     137 -> 142       -0.10707
     138 -> 148        0.16161

 The electronic state is 1-A.
 Alpha  occ. eigenvalues --  -10.25325 -10.25268 -10.24917 -10.24916 -10.24914
 Alpha  occ. eigenvalues --  -10.24912 -10.24372 -10.24372 -10.24327 -10.24327
 Alpha  occ. eigenvalues --  -10.24241 -10.24240 -10.24240 -10.24239 -10.23717
 Alpha  occ. eigenvalues --  -10.23716 -10.23716 -10.23716 -10.22980 -10.22979
 Alpha  occ. eigenvalues --  -10.22977 -10.22977 -10.22890 -10.22890 -10.22889
 Alpha  occ. eigenvalues --  -10.22889 -10.22697 -10.22697 -10.22697 -10.22697
 Alpha  occ. eigenvalues --  -10.22587 -10.22587 -10.22587 -10.22587 -10.22447
 Alpha  occ. eigenvalues --  -10.22447 -10.22447 -10.22447 -10.22314 -10.22314
 Alpha  occ. eigenvalues --  -10.22314 -10.22313  -0.94055  -0.91712  -0.91135
 Alpha  occ. eigenvalues --   -0.90443  -0.88618  -0.87449  -0.85193  -0.84815
 Alpha  occ. eigenvalues --   -0.84589  -0.82165  -0.81245  -0.79499  -0.79378
 Alpha  occ. eigenvalues --   -0.78549  -0.78334  -0.76069  -0.75947  -0.75859
 Alpha  occ. eigenvalues --   -0.74924  -0.73734  -0.73248  -0.67675  -0.66586
 Alpha  occ. eigenvalues --   -0.66335  -0.65563  -0.65023  -0.63785  -0.63606
 Alpha  occ. eigenvalues --   -0.62297  -0.61831  -0.61596  -0.60678  -0.60652
 Alpha  occ. eigenvalues --   -0.56193  -0.55573  -0.55159  -0.54489  -0.53717
 Alpha  occ. eigenvalues --   -0.53461  -0.52570  -0.52166  -0.51181  -0.50951
 Alpha  occ. eigenvalues --   -0.49410  -0.48546  -0.48385  -0.48280  -0.48197
 Alpha  occ. eigenvalues --   -0.46544  -0.46539  -0.45661  -0.44941  -0.44606
 Alpha  occ. eigenvalues --   -0.44425  -0.44359  -0.44291  -0.44184  -0.43158
 Alpha  occ. eigenvalues --   -0.43101  -0.42580  -0.42187  -0.41845  -0.41799
 Alpha  occ. eigenvalues --   -0.41748  -0.41729  -0.41276  -0.40463  -0.39322
 Alpha  occ. eigenvalues --   -0.39179  -0.39049  -0.38583  -0.37586  -0.37424
 Alpha  occ. eigenvalues --   -0.36099  -0.35685  -0.35657  -0.35613  -0.35149
 Alpha  occ. eigenvalues --   -0.34768  -0.34495  -0.34495  -0.33745  -0.33126
 Alpha  occ. eigenvalues --   -0.31833  -0.31336  -0.30147  -0.29997  -0.28298
 Alpha  occ. eigenvalues --   -0.28068  -0.25731  -0.24998  -0.24713  -0.24044
 Alpha  occ. eigenvalues --   -0.23238  -0.21485  -0.20660
 Alpha virt. eigenvalues --   -0.07069  -0.07019  -0.04390  -0.03649  -0.03638
 Alpha virt. eigenvalues --   -0.02478  -0.01738   0.00417   0.00660   0.00801
 Alpha virt. eigenvalues --    0.01114   0.01216   0.01393   0.02033   0.02070

 Mulliken charges:
               1
     1  C   -0.470469
     2  C    0.378570
     3  C    0.515580
     4  C   -0.244807
     5  C   -0.090618
     6  C   -0.331182
     7  C   -0.483418
     8  C   -0.474074
     9  C    0.321585
    10  C    0.128004
    11  C    0.321846
    12  C    0.127649
    13  C    0.177520
    14  C    0.177273
    15  C    0.127807
    16  C    0.321457
    17  C    0.321295
    18  C    0.128103
    19  C   -0.473716
    20  C   -0.483182
    21  C    0.515071
    22  C    0.378483
    23  C   -0.245316
    24  C   -0.090313
    25  C   -0.330824
    26  C   -0.470683
    27  H    0.105320
    28  H    0.146682
    29  H    0.146670
    30  H    0.105317
    31  H    0.105569
    32  H    0.102937
    33  H    0.101513
    34  H    0.100237
    35  C    0.378579
    36  C    0.378558
    37  H    0.100284
    38  H    0.101522
    39  H    0.102938
    40  H    0.105571
    41  C    0.515393
    42  C   -0.244801
    43  C   -0.090597
    44  C   -0.331046
    45  C   -0.470437
    46  C   -0.483414
    47  H    0.102939
    48  H    0.105572
    49  H    0.105321
    50  H    0.146706
    51  C   -0.474141
    52  H    0.101528
    53  H    0.100291
    54  C    0.514910
    55  C   -0.245290
    56  C   -0.090313
    57  C   -0.330766
    58  C   -0.470676
    59  C   -0.483082
    60  H    0.102937
    61  H    0.105570
    62  H    0.105317
    63  H    0.146686
    64  C   -0.473691
    65  H    0.101514
    66  H    0.100230
 Sum of Mulliken charges =   0.00000

 Dipole moment (field-independent basis, Debye):
    X=             -0.0001    Y=              0.0000    Z=              0.0001  Tot=              0.0001
 Quadrupole moment (field-independent basis, Debye-Ang):
   XX=           -216.1476   YY=           -210.5749   ZZ=           -243.2754
   XY=             -0.0001   XZ=              0.0001   YZ=             -0.0016

 Normal termination of Gaussian 09 at Thu Oct 21 00:50:23 2021.
